TITLE = test
FILETYPE = SOLUTION
VARIABLES = q

ZONE
T = test_zone
ZONETYPE = FEQUADRILATERAL
NODES = 4 #필수
ELEMENTS = 1 #필수
DATAPACKING = BLOCK

# VARIABLE DATA
1 2 3 4
