TITLE = test
FILETYPE = GRID
VARIABLES = X, Y

ZONE
T = test_zone
ZONETYPE = FEQUADRILATERAL
NODES = 4
ELEMENTS = 1
DATAPACKING = BLOCK

# VARIABLE DATA
1 2 1 2 
1 1 2 2 

# CONNECTIVITY
1 2 4 3